                         Program Version 4.0  -  CURRENT   -
|  1> #! uhf cc-pvtz cc-pv6z/JK lpno-ccsd largeprint DecontractAux
|  2> ! uhf lpno-ccsd  DecontractAux
|  3>
|  4> #! uhf 3-21g ccsd largeprint
|  5>
|  6> #%method method hf
|  7> #end
|  8>
|  9> #%basis basis ccpvdz
| 10> #  end
| 11>
| 12> #%method frozencore
| 13> #FC_NONE
| 14> #end
| 15>
| 16> %MaxCore 6000
| 17> %basis
| 18> Basis "6-31g"
| 19> Auxbasis "cc-pv6z/JK"
| 20> end
| 21> %scf
| 22> Convergence Tight
| 23> end
| 24>
| 25> #%output
| 26> #Print[P_overlap] 1
| 27> #Print[P_AtomBasis] 1
| 28> #Print[P_Basis] 1
| 29> #Print[P_Mos] 1
| 30> #end
| 31>
| 32> %mdci
| 33> #printlevel 1
| 34> mrcc on
| 35> mrcctype mkcc
| 36> root -1
| 37> root_overlap "-0.6,0.8"
| 38> #MaxDIIS 0
| 39> #refs "22220,22202"
| 40> refs "22222222222222222222202,22222222222222222222220"
| 41> #refs "22202"
| 42> #refs "22220"
| 43> STol 1e-7
| 44> #userhfints false
| 45> useqros true
| 46> tcutpno .00000000464194510239
| 47> #tcutpairs 0
| 48> #tcutmkn 0
| 49> #PNOSigmaOpt 3
| 50> #DoAccJKDress 1
| 51> end
| 52>
| 53> %coords
| 54> Ctyp internal
| 55> Charge 0
| 56> Mult 1
| 57> Units Angs
| 58>
| 59> pardef
| 60>    twist [0.0 10. 20. 30. 40. 50. 60. 70. 80. 90.];
| 61> #   full [180];
| 62>    c1c2 [1.4993624219];
| 63>    c1c3 [1.3977615270];
| 64> #   c3c1c2 [118.8806746055];
| 65> #   h1c3 [1.0929706704];
| 66> #   h1c3c1 [120.3530086544];
| 67> #   alpha [0.7233619508];
| 68> #   h5c3 [1.0906057672];
| 69> #   h5c3c1 [121.0883576824];
| 70> #   beta [2.3358631058];
| 71> end
| 72> coords
| 73>  C 0 0 0  0 0 0
| 74>  C 1 0 0  {c1c2} 0 0
| 75>  C 1 2 0  {c1c3} 118.8806746055 0
| 76>  C 1 2 3  {c1c3} 118.8806746055 180
| 77>  C 2 1 3  {c1c3} 118.8806746055 {twist}
| 78>  C 2 1 4  {c1c3} 118.8806746055 {twist}
| 79>  H 3 1 4  1.0929706704 120.3530086544 0.7233619508
| 80>  H 4 1 3  1.0929706704 120.3530086544 0.7233619508
| 81>  H 5 2 6  1.0929706704 120.3530086544 0.7233619508
| 82>  H 6 2 5  1.0929706704 120.3530086544 0.7233619508
| 83>  H 3 1 2  1.0906057672 121.0883576824 2.3358631058
| 84>  H 4 1 2  1.0906057672 121.0883576824 2.3358631058
| 85>  H 5 2 1  1.0906057672 121.0883576824 2.3358631058
| 86>  H 6 2 1  1.0906057672 121.0883576824 2.3358631058
| 87>  end
| 88> end
| 89>
| 90>                          ****END OF INPUT****
 Total Charge           Charge          ....    0
 Multiplicity           Mult            ....    1
 Number of Electrons    NEL             ....   44
 Basis Dimension        Dim             ....   70

ORBITAL ENERGIES
----------------
                 SPIN UP ORBITALS
  NO   OCC          E(Eh)            E(eV)
   0   1.0000     -11.260736      -306.4202
   1   1.0000     -11.260095      -306.4028
   2   1.0000     -11.249582      -306.1167
   3   1.0000     -11.249579      -306.1166
   4   1.0000     -11.249508      -306.1147
   5   1.0000     -11.249505      -306.1146
   6   1.0000      -1.129731       -30.7415
   7   1.0000      -1.028457       -27.9857
   8   1.0000      -0.946008       -25.7422
   9   1.0000      -0.888394       -24.1744
  10   1.0000      -0.802569       -21.8390
  11   1.0000      -0.690554       -18.7909
  12   1.0000      -0.684647       -18.6302
  13   1.0000      -0.633463       -17.2374
  14   1.0000      -0.571595       -15.5539
  15   1.0000      -0.568488       -15.4694
  16   1.0000      -0.566353       -15.4113
  17   1.0000      -0.509506       -13.8644
  18   1.0000      -0.495957       -13.4957
  19   1.0000      -0.477521       -12.9940
  20   1.0000      -0.349855        -9.5200
  21   1.0000      -0.195466        -5.3189
  22   0.0000      -0.013709        -0.3730
  23   0.0000       0.154176         4.1953
  24   0.0000       0.233898         6.3647
  25   0.0000       0.273948         7.4545
  26   0.0000       0.278780         7.5860

                 SPIN DOWN ORBITALS
  NO   OCC          E(Eh)            E(eV)
   0   1.0000     -11.260736      -306.4202
   1   1.0000     -11.260095      -306.4028
   2   1.0000     -11.249582      -306.1167
   3   1.0000     -11.249579      -306.1166
   4   1.0000     -11.249508      -306.1147
   5   1.0000     -11.249505      -306.1146
   6   1.0000      -1.129731       -30.7415
   7   1.0000      -1.028457       -27.9857
   8   1.0000      -0.946008       -25.7422
   9   1.0000      -0.888394       -24.1744
  10   1.0000      -0.802569       -21.8390
  11   1.0000      -0.690554       -18.7909
  12   1.0000      -0.684647       -18.6302
  13   1.0000      -0.633463       -17.2374
  14   1.0000      -0.571595       -15.5539
  15   1.0000      -0.568488       -15.4694
  16   1.0000      -0.566353       -15.4113
  17   1.0000      -0.509506       -13.8644
  18   1.0000      -0.495957       -13.4957
  19   1.0000      -0.477521       -12.9940
  20   1.0000      -0.349855        -9.5200
  21   1.0000      -0.195466        -5.3189
  22   0.0000      -0.013709        -0.3730
  23   0.0000       0.154176         4.1953
  24   0.0000       0.233898         6.3647
  25   0.0000       0.273948         7.4545
  26   0.0000       0.278780         7.5860

MULLIKEN ATOMIC CHARGES AND SPIN POPULATIONS
--------------------------------------------
   0 C :    0.056805    0.000000
   1 C :    0.056805    0.000000
   2 C :   -0.387998    0.000000
   3 C :   -0.387998    0.000000
   4 C :   -0.387998    0.000000
   5 C :   -0.387998    0.000000
   6 H :    0.180509    0.000000
   7 H :    0.180509    0.000000
   8 H :    0.180509    0.000000
   9 H :    0.180509    0.000000
  10 H :    0.179087    0.000000
  11 H :    0.179087    0.000000
  12 H :    0.179087    0.000000
  13 H :    0.179087    0.000000
Sum of atomic charges         :   -0.0000000

LOEWDIN ATOMIC CHARGES AND SPIN POPULATIONS
-------------------------------------------
   0 C :   -0.023932    0.000000
   1 C :   -0.023932    0.000000
   2 C :   -0.239278    0.000000
   3 C :   -0.239278    0.000000
   4 C :   -0.239278    0.000000
   5 C :   -0.239278    0.000000
   6 H :    0.124991    0.000000
   7 H :    0.124991    0.000000
   8 H :    0.124991    0.000000
   9 H :    0.124991    0.000000
  10 H :    0.126252    0.000000
  11 H :    0.126252    0.000000
  12 H :    0.126252    0.000000
  13 H :    0.126252    0.000000

E(0)                                       ...   -231.499673966
E(0)                                       ...   -231.553435718
FINAL SINGLE POINT ENERGY      -231.499673965715
E(0)                                       ...   -231.504582969
E(0)                                       ...   -231.553729276
FINAL SINGLE POINT ENERGY      -231.504582968713
E(0)                                       ...   -231.514983360
E(0)                                       ...   -231.552539533
FINAL SINGLE POINT ENERGY      -231.514983359659
FINAL SINGLE POINT ENERGY      -231.527463238107
FINAL SINGLE POINT ENERGY      -231.539175170229
FINAL SINGLE POINT ENERGY      -231.548624849790
FINAL SINGLE POINT ENERGY      -231.555384246293
E(0)                                       ...   -231.559611513
E(0)                                       ...   -231.516980120
FINAL SINGLE POINT ENERGY      -231.559611512804
E(0)                                       ...   -231.561697314
E(0)                                       ...   -231.512562023
FINAL SINGLE POINT ENERGY      -231.561697314132

CARTESIAN COORDINATES (ANGSTROEM)
---------------------------------
  C      0.000000    0.000000    0.000000
  C      1.499362    0.000000    0.000000
  C     -0.675101    1.223918    0.000000
  C     -0.675101   -1.223918   -0.000000
  C      2.174463    0.000000    1.223918
  C      2.174463    0.000000   -1.223918
  H     -1.767645    1.252038    0.011907
  H     -1.767645   -1.252038   -0.011907
  H      3.267007    0.011907    1.252038
  H      3.267007   -0.011907   -1.252038
  H     -0.129967    2.167741   -0.038066
  H     -0.129967   -2.167741    0.038066
  H      1.629329   -0.038066    2.167741
  H      1.629329    0.038066   -2.167741

E(0)                                       ...   -231.562005501
E(0)                                       ...   -231.511354438
FINAL SINGLE POINT ENERGY      -231.562005501096

DIPOLE MOMENT
-------------
                                X             Y             Z
Electronic contribution:     -0.00000      -0.00000      -0.00000
Nuclear contribution   :     -0.00000       0.00000      -0.00000
                        -----------------------------------------
Total Dipole Moment    :     -0.00000       0.00000      -0.00000
                        -----------------------------------------
Magnitude (a.u.)       :      0.00000
Magnitude (Debye)      :      0.00000

                             ****ORCA TERMINATED NORMALLY****
TOTAL RUN TIME: 0 days 4 hours 44 minutes 54 seconds 181 msec
